# vtk DataFile Version 3.0
vtk output
ASCII
DATASET STRUCTURED_GRID
DIMENSIONS 40 40 40
POINTS 64000 double
-0.352797 -0.5008 -0.304276
-0.334591 -0.5008 -0.304276
-0.316384 -0.5008 -0.304276
-0.298178 -0.5008 -0.304276
-0.279971 -0.5008 -0.304276
-0.261764 -0.5008 -0.304276
-0.243558 -0.5008 -0.304276
-0.225351 -0.5008 -0.304276
-0.207144 -0.5008 -0.304276
-0.188938 -0.5008 -0.304276
-0.170731 -0.5008 -0.304276
-0.152525 -0.5008 -0.304276
-0.134318 -0.5008 -0.304276
-0.116111 -0.5008 -0.304276
-0.0979048 -0.5008 -0.304276
-0.0796982 -0.5008 -0.304276
-0.0614916 -0.5008 -0.304276
-0.043285 -0.5008 -0.304276
-0.0250784 -0.5008 -0.304276
-0.00687174 -0.5008 -0.304276
0.0113349 -0.5008 -0.304276
0.0295415 -0.5008 -0.304276
0.0477481 -0.5008 -0.304276
0.0659547 -0.5008 -0.304276
0.0841613 -0.5008 -0.304276
0.102368 -0.5008 -0.304276
0.120575 -0.5008 -0.304276
0.138781 -0.5008 -0.304276
0.156988 -0.5008 -0.304276
0.175194 -0.5008 -0.304276
0.193401 -0.5008 -0.304276
0.211608 -0.5008 -0.304276
0.229814 -0.5008 -0.304276
0.248021 -0.5008 -0.304276
0.266227 -0.5008 -0.304276
0.284434 -0.5008 -0.304276
0.302641 -0.5008 -0.304276
0.320847 -0.5008 -0.304276
0.339054 -0.5008 -0.304276
0.35726 -0.5008 -0.304276
-0.352797 -0.478902 -0.304276
-0.334591 -0.478902 -0.304276
-0.316384 -0.478902 -0.304276
-0.298178 -0.478902 -0.304276
-0.279971 -0.478902 -0.304276
-0.261764 -0.478902 -0.304276
-0.243558 -0.478902 -0.304276
-0.225351 -0.478902 -0.304276
-0.207144 -0.478902 -0.304276
-0.188938 -0.478902 -0.304276
-0.170731 -0.478902 -0.304276
-0.152525 -0.478902 -0.304276
-0.134318 -0.478902 -0.304276
-0.116111 -0.478902 -0.304276
-0.0979048 -0.478902 -0.304276
-0.0796982 -0.478902 -0.304276
-0.0614916 -0.478902 -0.304276
-0.043285 -0.478902 -0.304276
-0.0250784 -0.478902 -0.304276
-0.00687174 -0.478902 -0.304276
0.0113349 -0.478902 -0.304276
0.0295415 -0.478902 -0.304276
0.0477481 -0.478902 -0.304276
0.0659547 -0.478902 -0.304276
0.0841613 -0.478902 -0.304276
0.102368 -0.478902 -0.304276
0.120575 -0.478902 -0.304276
0.138781 -0.478902 -0.304276
0.156988 -0.478902 -0.304276
0.175194 -0.478902 -0.304276
0.193401 -0.478902 -0.304276
0.211608 -0.478902 -0.304276
0.229814 -0.478902 -0.304276
0.248021 -0.478902 -0.304276
0.266227 -0.478902 -0.304276
0.284434 -0.478902 -0.304276
0.302641 -0.478902 -0.304276
0.320847 -0.478902 -0.304276
0.339054 -0.478902 -0.304276
0.35726 -0.478902 -0.304276
-0.352797 -0.457005 -0.304276
-0.334591 -0.457005 -0.304276
-0.316384 -0.457005 -0.304276
-0.298178 -0.457005 -0.304276
-0.279971 -0.457005 -0.304276
-0.261764 -0.457005 -0.304276
-0.243558 -0.457005 -0.304276
-0.225351 -0.457005 -0.304276
-0.207144 -0.457005 -0.304276
-0.188938 -0.457005 -0.304276
-0.170731 -0.457005 -0.304276
-0.152525 -0.457005 -0.304276
-0.134318 -0.457005 -0.304276
-0.116111 -0.457005 -0.304276
-0.0979048 -0.457005 -0.304276
-0.0796982 -0.457005 -0.304276
-0.0614916 -0.457005 -0.304276
-0.043285 -0.457005 -0.304276
-0.0250784 -0.457005 -0.304276
-0.00687174 -0.457005 -0.304276
0.0113349 -0.457005 -0.304276
0.0295415 -0.457005 -0.304276
0.0477481 -0.457005 -0.304276
0.0659547 -0.457005 -0.304276
0.0841613 -0.457005 -0.304276
0.102368 -0.457005 -0.304276
0.120575 -0.457005 -0.304276
0.138781 -0.457005 -0.304276
0.156988 -0.457005 -0.304276
0.175194 -0.457005 -0.304276
0.193401 -0.457005 -0.304276
0.211608 -0.457005 -0.304276
0.229814 -0.457005 -0.304276
0.248021 -0.457005 -0.304276
0.266227 -0.457005 -0.304276
0.284434 -0.457005 -0.304276
0.302641 -0.457005 -0.304276
0.320847 -0.457005 -0.304276
0.339054 -0.457005 -0.304276
0.35726 -0.457005 -0.304276
-0.352797 -0.435107 -0.304276
-0.334591 -0.435107 -0.304276
-0.316384 -0.435107 -0.304276
-0.298178 -0.435107 -0.304276
-0.279971 -0.435107 -0.304276
-0.261764 -0.435107 -0.304276
-0.243558 -0.435107 -0.304276
-0.225351 -0.435107 -0.304276
-0.207144 -0.435107 -0.304276
-0.188938 -0.435107 -0.304276
-0.170731 -0.435107 -0.304276
-0.152525 -0.435107 -0.304276
-0.134318 -0.435107 -0.304276
-0.116111 -0.435107 -0.304276
-0.0979048 -0.435107 -0.304276
-0.0796982 -0.435107 -0.304276
-0.0614916 -0.435107 -0.304276
-0.043285 -0.435107 -0.304276
-0.0250784 -0.435107 -0.304276
-0.00687174 -0.435107 -0.304276
0.0113349 -0.435107 -0.304276
0.0295415 -0.435107 -0.304276
0.0477481 -0.435107 -0.304276
0.0659547 -0.435107 -0.304276
0.0841613 -0.435107 -0.304276
0.102368 -0.435107 -0.304276
0.120575 -0.435107 -0.304276
0.138781 -0.435107 -0.304276
0.156988 -0.435107 -0.304276
0.175194 -0.435107 -0.304276
0.193401 -0.435107 -0.304276
0.211608 -0.435107 -0.304276
0.229814 -0.435107 -0.304276
0.248021 -0.435107 -0.304276
0.266227 -0.435107 -0.304276
0.284434 -0.435107 -0.304276
0.302641 -0.435107 -0.304276
0.320847 -0.435107 -0.304276
0.339054 -0.435107 -0.304276
0.35726 -0.435107 -0.304276
-0.352797 -0.41321 -0.304276
-0.334591 -0.41321 -0.304276
-0.316384 -0.41321 -0.304276
-0.298178 -0.41321 -0.304276
-0.279971 -0.41321 -0.304276
-0.261764 -0.41321 -0.304276
-0.243558 -0.41321 -0.304276
-0.225351 -0.41321 -0.304276
-0.207144 -0.41321 -0.304276
-0.188938 -0.41321 -0.304276
-0.170731 -0.41321 -0.304276
-0.152525 -0.41321 -0.304276
-0.134318 -0.41321 -0.304276
-0.116111 -0.41321 -0.304276
-0.0979048 -0.41321 -0.304276
-0.0796982 -0.41321 -0.304276
-0.0614916 -0.41321 -0.304276
-0.043285 -0.41321 -0.304276
-0.0250784 -0.41321 -0.304276
-0.00687174 -0.41321 -0.304276
0.0113349 -0.41321 -0.304276
0.0295415 -0.41321 -0.304276
0.0477481 -0.41321 -0.304276
0.0659547 -0.41321 -0.304276
0.0841613 -0.41321 -0.304276
0.102368 -0.41321 -0.304276
0.120575 -0.41321 -0.304276
0.138781 -0.41321 -0.304276
0.156988 -0.41321 -0.304276
0.175194 -0.41321 -0.304276
0.193401 -0.41321 -0.304276
0.211608 -0.41321 -0.304276
0.229814 -0.41321 -0.304276
0.248021 -0.41321 -0.304276
0.266227 -0.41321 -0.304276
0.284434 -0.41321 -0.304276
0.302641 -0.41321 -0.304276
0.320847 -0.41321 -0.304276
0.339054 -0.41321 -0.304276
0.35726 -0.41321 -0.304276
-0.352797 -0.391312 -0.304276
-0.334591 -0.391312 -0.304276
-0.316384 -0.391312 -0.304276
-0.298178 -0.391312 -0.304276
-0.279971 -0.391312 -0.304276
-0.261764 -0.391312 -0.304276
-0.243558 -0.391312 -0.304276
-0.225351 -0.391312 -0.304276
-0.207144 -0.391312 -0.304276
-0.188938 -0.391312 -0.304276
-0.170731 -0.391312 -0.304276
-0.152525 -0.391312 -0.304276
-0.134318 -0.391312 -0.304276
-0.116111 -0.391312 -0.304276
-0.0979048 -0.391312 -0.304276
-0.0796982 -0.391312 -0.304276
-0.0614916 -0.391312 -0.304276
-0.043285 -0.391312 -0.304276
-0.0250784 -0.391312 -0.304276
-0.00687174 -0.391312 -0.304276
0.0113349 -0.391312 -0.304276
0.0295415 -0.391312 -0.304276
0.0477481 -0.391312 -0.304276
0.0659547 -0.391312 -0.304276
0.0841613 -0.391312 -0.304276
0.102368 -0.391312 -0.304276
0.120575 -0.391312 -0.304276
0.138781 -0.391312 -0.304276
0.156988 -0.391312 -0.304276
0.175194 -0.391312 -0.304276
0.193401 -0.391312 -0.304276
0.211608 -0.391312 -0.304276
0.229814 -0.391312 -0.304276
0.248021 -0.391312 -0.304276
0.266227 -0.391312 -0.304276
0.284434 -0.391312 -0.304276
0.302641 -0.391312 -0.304276
0.320847 -0.391312 -0.304276
0.339054 -0.391312 -0.304276
0.35726 -0.391312 -0.304276
-0.352797 -0.369415 -0.304276
-0.334591 -0.369415 -0.304276
-0.316384 -0.369415 -0.304276
-0.298178 -0.369415 -0.304276
-0.279971 -0.369415 -0.304276
-0.261764 -0.369415 -0.304276
-0.243558 -0.369415 -0.304276
-0.225351 -0.369415 -0.304276
-0.207144 -0.369415 -0.304276
-0.188938 -0.369415 -0.304276
-0.170731 -0.369415 -0.304276
-0.152525 -0.369415 -0.304276
-0.134318 -0.369415 -0.304276
-0.116111 -0.369415 -0.304276
-0.0979048 -0.369415 -0.304276
-0.0796982 -0.369415 -0.304276
-0.0614916 -0.369415 -0.304276
-0.043285 -0.369415 -0.304276
-0.0250784 -0.369415 -0.304276
-0.00687174 -0.369415 -0.304276
0.0113349 -0.369415 -0.304276
0.0295415 -0.369415 -0.304276
0.0477481 -0.369415 -0.304276
0.0659547 -0.369415 -0.304276
0.0841613 -0.369415 -0.304276
0.102368 -0.369415 -0.304276
0.120575 -0.369415 -0.304276
0.138781 -0.369415 -0.304276
0.156988 -0.369415 -0.304276
0.175194 -0.369415 -0.304276
0.193401 -0.369415 -0.304276
0.211608 -0.369415 -0.304276
0.229814 -0.369415 -0.304276
0.248021 -0.369415 -0.304276
0.266227 -0.369415 -0.304276
0.284434 -0.369415 -0.304276
0.302641 -0.369415 -0.304276
0.320847 -0.369415 -0.304276
0.339054 -0.369415 -0.304276
0.35726 -0.369415 -0.304276
-0.352797 -0.347517 -0.304276
-0.334591 -0.347517 -0.304276
-0.316384 -0.347517 -0.304276
-0.298178 -0.347517 -0.304276
-0.279971 -0.347517 -0.304276
-0.261764 -0.347517 -0.304276
-0.243558 -0.347517 -0.304276
-0.225351 -0.347517 -0.304276
-0.207144 -0.347517 -0.304276
-0.188938 -0.347517 -0.304276
-0.170731 -0.347517 -0.304276
-0.152525 -0.347517 -0.304276
-0.134318 -0.347517 -0.304276
-0.116111 -0.347517 -0.304276
-0.0979048 -0.347517 -0.304276
-0.0796982 -0.347517 -0.304276
-0.0614916 -0.347517 -0.304276
-0.043285 -0.347517 -0.304276
-0.0250784 -0.347517 -0.304276
-0.00687174 -0.347517 -0.304276
0.0113349 -0.347517 -0.304276
0.0295415 -0.347517 -0.304276
0.0477481 -0.347517 -0.304276
0.0659547 -0.347517 -0.304276
0.0841613 -0.347517 -0.304276
0.102368 -0.347517 -0.304276
0.120575 -0.347517 -0.304276
0.138781 -0.347517 -0.304276
0.156988 -0.347517 -0.304276
0.175194 -0.347517 -0.304276
0.193401 -0.347517 -0.304276
0.211608 -0.347517 -0.304276
0.229814 -0.347517 -0.304276
0.248021 -0.347517 -0.304276
0.266227 -0.347517 -0.304276
0.284434 -0.347517 -0.304276
0.302641 -0.347517 -0.304276
0.320847 -0.347517 -0.304276
0.339054 -0.347517 -0.304276
0.35726 -0.347517 -0.304276
-0.352797 -0.32562 -0.304276
-0.334591 -0.32562 -0.304276
-0.316384 -0.32562 -0.304276
-0.298178 -0.32562 -0.304276
-0.279971 -0.32562 -0.304276
-0.261764 -0.32562 -0.304276
-0.243558 -0.32562 -0.304276
-0.225351 -0.32562 -0.304276
-0.207144 -0.32562 -0.304276
-0.188938 -0.32562 -0.304276
-0.170731 -0.32562 -0.304276
-0.152525 -0.32562 -0.304276
-0.134318 -0.32562 -0.304276
-0.116111 -0.32562 -0.304276
-0.0979048 -0.32562 -0.304276
-0.0796982 -0.32562 -0.304276
[...]
POINT_DATA 64000
SCALARS Density double
LOOKUP_TABLE default
0.0322517
0.0319104
0.0319104
0.0319104
0.0319104
0.0319104
0.0319104
0.0319104
0.0319104
0.0319104
0.0319104
0.0319104
0.0319104
0.0322517
0.0322517
0.0322517
0.0340308
0.0340308
0.0340308
0.0340308
0.0339218
0.0339218
0.0339218
0.0347518
0.0360048
0.0327948
0.0327948
0.0327948
0.0328429
0.0328429
0.0328429
0.0328429
0.0334303
0.0334303
0.0334303
0.036009
0.036009
0.0363792
0.0363792
0.0368022
0.0322517
0.0319104
0.0319104
0.0319104
0.0319104
0.0319104
0.0319104
0.0319104
0.0319104
0.0319104
0.0319104
0.0319104
0.0319104
0.0322517
0.0322517
0.0322517
0.0340308
0.0340308
0.0340308
0.0340308
0.0339218
0.0339218
0.0339218
0.0347518
0.0349178
0.0327948
0.0327948
0.0327948
0.0328429
0.0328429
0.0328429
0.0334303
0.0334303
0.0334303
0.036009
0.036009
0.036009
0.0363792
0.0363792
0.0368022
0.0322517
0.0322517
0.0319104
0.0319104
0.0319104
0.0319104
0.0319104
0.0319104
0.0319104
0.0319104
0.0319104
0.0319104
0.0319104
0.0322517
0.0322517
0.0322517
0.0340308
0.0340308
0.0340308
0.0340308
0.0339218
0.0339218
0.0339218
0.0349178
0.0327948
0.0327948
0.0327948
0.0327948
0.0328429
0.0328429
0.0328429
0.0334303
0.0334303
0.0334303
0.036009
0.036009
0.036009
0.0363792
0.0363792
0.0368022
0.0292375
0.0322517
0.000310325
0.000310325
0.0319104
0.0319104
0.0319104
0.0319104
0.0319104
0.0319104
0.0319104
0.0319104
0.0319104
0.0319104
0.0322517
0.0322517
0.0322517
0.0340308
0.0340308
0.0340308
0.0339218
0.0339218
0.0339218
0.0340168
0.0327948
0.0327948
0.0327948
0.0327948
0.0328429
0.0328429
0.0328429
0.0334303
0.0334303
0.0363679
0.036009
0.036009
0.036009
0.0363792
0.0368022
0.0368022
0.0292375
0.0292375
0.0299906
0.000310325
0.0319104
0.0319104
0.0319104
0.0319104
0.0319104
0.0319104
0.0319104
0.0319104
0.0319104
0.0319104
0.0322517
0.0322517
0.0322517
0.0340308
0.0340308
0.0340308
0.0339218
0.0339218
0.0339218
0.0340168
0.0327948
0.0327948
0.0327948
0.0327948
0.0327948
0.0328429
0.0334303
0.00124381
0.00124381
0.0363679
0.036009
0.036009
0.0363792
0.0363792
0.0368022
0.0368022
0.000310325
0.000310325
0.000310325
0.000310325
0.0285153
0.0319104
0.0319104
0.0319104
0.0319104
0.0319104
0.0319104
0.0319104
0.0319104
0.0319104
0.0319104
0.0322517
0.0322517
0.0340308
0.0340308
0.0340308
0.0339218
0.0339218
0.0340168
0.0340168
0.0327948
0.0327948
0.0327948
0.0327948
0.0327948
0.0328429
0.00124381
0.00124381
0.0363679
0.0363679
0.0363679
0.036009
0.0363792
0.0368022
0.0368022
0.0368022
0.000310325
0.000310325
0.0292375
0.0292375
0.0297067
0.0299906
0.0319104
0.0319104
0.0319104
0.0319104
0.0319104
0.0319104
0.0328469
0.0319104
0.0319104
0.0322517
0.0322517
0.0340308
0.0340308
0.0340308
0.0339218
0.0339218
0.0340168
0.0327948
0.0327948
0.0327948
0.0327948
0.0327948
0.0327948
0.00124381
0.0334303
0.0363679
0.0363679
0.0363679
0.0363679
0.0363679
0.0363792
0.0368022
0.0368022
0.0368022
0.0321901
0.000310325
0.0292375
0.0189872
0.0284095
0.0299906
0.0319104
0.0319104
0.0319104
0.0319104
0.0319104
0.0319104
0.0328469
0.0328469
0.0319104
0.0319104
0.0322517
0.0340308
0.0340308
0.0340308
0.0339218
0.0339218
0.0340168
0.0327948
0.0327948
0.0327948
0.0327948
0.0327948
0.0327948
0.0328429
0.0334303
0.0363679
0.0363679
0.0363679
0.0363679
0.0363679
0.0363792
0.0368022
0.0368022
0.0368022
0.0321901
0.0321901
0.00635848
0.0207384
0.0284149
0.0292375
0.0299906
0.0319104
0.0319104
0.0319104
0.0328469
0.0319104
0.0328469
0.0328469
0.0328469
0.0319104
0.0322517
0.0340308
0.0340308
0.0340308
0.0339218
0.0339218
0.0340168
0.0327948
0.0327948
0.0327948
0.0327948
0.0327948
0.0327948
0.0334303
0.0363679
0.0363679
0.0363679
0.0363679
0.0363679
0.0363679
0.0368022
0.0368022
0.0368022
0.0368022
0.0321901
0.0321901
0.0134247
0.0258495
0.0292375
0.0292375
0.0292375
0.0319104
0.0319104
0.0319104
0.0319104
0.0328469
0.0328469
0.0328469
0.0328469
0.0328469
0.0322517
0.0340308
0.0340308
0.0340308
0.0340308
0.0340168
0.0327948
0.0327948
0.0327948
0.0327948
0.0327948
0.0327948
0.0327948
0.0334303
0.0356879
0.0363679
0.0363679
0.0363679
0.0363679
0.0363792
0.0368022
0.0368022
0.0368022
0.0368022
0.0321901
0.0321901
0.0206078
0.0298621
0.0292375
0.0292375
0.0292375
0.0328469
0.0319104
0.0319104
0.0319104
0.0319104
0.0328469
0.0328469
0.0328469
0.0328469
0.0328469
0.0322517
0.0340308
0.0340308
0.0340308
0.0340168
0.0327948
0.0327948
0.0327948
0.0327948
0.0327948
0.0327948
0.0327948
0.0351988
0.0356879
0.0363679
0.0363679
0.0363679
0.0363679
0.0368022
0.0368022
0.0368022
0.0368022
0.0368022
0.000310325
0.000310325
0.0267314
0.0314578
0.0322517
0.0292375
0.0292375
0.0328469
0.0328469
0.0319104
0.0319104
0.0319104
0.0328469
0.0328469
0.0328469
0.0328469
0.0328469
0.0328469
0.00124381
0.00124381
0.0340308
0.0340168
0.0327948
0.0327948
0.0327948
0.0327948
0.0327948
0.0327948
0.0327948
0.0351988
0.0356879
0.0363679
0.0363679
0.0363679
0.0363679
0.0368022
0.0368022
0.0368022
0.0368022
0.0368022
0.000310325
0.000310325
0.0305517
0.0322517
0.0322517
0.0322517
0.0292375
0.0328469
0.0328469
0.0328469
0.0319104
0.0319104
0.0319104
0.0328469
0.0328469
0.0328469
0.0328469
0.00124381
0.00124381
0.00124381
0.0340308
0.0340168
0.0343692
0.0343692
0.0327948
0.0327948
0.0327948
0.0327948
0.0351988
0.0351988
0.0356879
0.0356879
0.0363679
0.0363679
0.0363679
0.0368022
0.0368022
0.0368022
0.0368022
0.0368022
0.0322516
0.0322516
0.0322222
0.0322517
0.0322517
0.0322517
0.0292375
0.0328469
0.0328469
0.0328469
0.0319104
0.0319104
0.0319104
0.0319104
0.0328469
0.0328469
0.00124381
0.00124381
0.00124381
0.0328469
0.0327948
0.0343692
0.0343692
0.0343692
0.0343692
0.0327948
0.0327948
0.0327948
0.0351988
0.0351988
0.0356879
0.0356879
0.0363679
0.0363679
0.0368022
0.0368022
0.0368022
0.0368022
0.0368022
0.0368022
0.0299906
0.0322517
0.0322517
0.0322517
0.0322517
0.0322517
0.0322517
0.0328469
0.0328469
0.0328469
0.0328469
0.0319104
0.0319104
0.0319104
0.0319104
0.0328469
0.0328469
0.0328469
0.0328469
0.0327948
0.0327948
0.0327086
0.0343692
0.0343692
0.0343692
0.0343692
0.0327948
0.0327948
0.0351988
0.0351988
0.0356879
0.0356879
0.0356879
0.0367879
0.0368022
0.0368022
0.0368022
0.0368022
0.0368022
0.0368022
0.0299906
0.0299906
0.0322517
0.0322517
0.0322517
0.0322517
0.0322517
0.0322517
0.0328469
0.0328469
0.0328469
0.0328469
0.0319104
0.0319104
0.0319104
0.0328469
0.0328469
0.0328469
0.0328469
0.0327948
0.0327948
0.0327086
0.0327086
0.0343692
0.0343692
0.0343692
0.0343692
0.0343692
0.0351988
0.0351988
0.0356879
0.0356879
0.0359328
0.0367879
0.0368022
0.0368022
0.0368022
0.0368022
0.0368022
0.0368022
0.0292375
0.0299906
0.0299906
0.0299906
0.0322517
0.0322517
0.0322517
0.0322517
0.0322517
0.0328469
0.0328469
0.0328469
0.0328469
0.0319104
0.0319104
0.0319104
0.0328469
0.0328469
0.0327948
0.0327948
0.0357548
0.0327086
0.0327086
0.0327086
0.0343692
0.0343692
0.0343692
0.0343692
0.0343692
0.0351988
0.0359328
0.0359328
0.0367879
0.0367879
0.0368022
0.0368022
0.0368022
0.0368022
0.0368022
0.0368022
0.0292375
0.0292375
0.0299906
0.0299906
0.0299906
0.0322517
0.0322517
0.0322517
0.0322517
0.0328469
0.0328469
0.0328469
0.0328469
0.0327079
0.0319104
0.0319104
0.0319104
0.0328469
0.0327948
0.0327948
0.0357548
0.0355417
0.0327086
0.0327086
0.0327086
0.0327086
0.0343692
0.0343692
0.0343692
0.0344081
0.0344081
0.0359328
0.0359328
0.0368022
0.0368022
0.0368022
0.0368022
0.0368022
0.0368022
0.0368022
0.0292375
0.0292375
0.0292375
0.0292375
0.0299906
0.0299906
0.0299906
0.0322517
0.0322517
0.0322517
0.0328429
0.0327086
0.0327086
0.0327079
0.0319104
0.0319104
0.0319104
0.0322517
0.0327948
0.0327948
0.0357548
0.0357548
0.0327086
0.0327086
0.0327086
0.0327086
0.0343692
0.0343692
0.0340308
0.0344081
0.0340839
0.0340839
0.0359328
0.0368022
0.0368022
0.0368022
0.0368022
0.0368022
0.0368022
0.0368022
0.0322517
0.0292375
0.0292375
0.0292375
0.0292375
0.0299906
0.0299906
0.0299906
0.0322517
0.0322517
0.0322517
0.0328429
0.0328429
0.0328397
0.0327079
0.0319104
0.0319104
0.0319104
0.0327948
0.0327948
0.0357548
0.0357548
0.0327086
0.0327086
0.0327086
0.0343692
0.0343692
0.0344081
0.0340839
0.0340839
0.0340839
0.0367879
0.0367879
0.0367879
0.0368022
0.0368022
0.0368022
0.0368022
0.0368022
0.0368062
0.0322517
0.0322517
0.0292375
0.0292375
0.0292375
0.0292375
0.0299906
0.0299906
0.0322517
0.0322517
0.0322517
0.0328429
0.0328429
0.0328397
0.0328397
0.0328397
0.0328429
0.0319104
0.0319104
0.0327086
0.0357548
0.0357548
0.0357548
0.0327086
0.0327086
0.0340672
0.0340839
0.0340839
0.0340839
0.0340839
0.0367879
0.0367879
0.0367879
0.0367879
0.0367879
0.0368022
0.0368022
0.0368062
0.0368062
0.0368062
0.0322517
0.0322517
0.0322517
0.0277922
0.0277922
0.0292375
0.0292375
0.0299906
0.0322517
0.0322517
0.0322517
0.0322517
0.0328429
0.0328429
0.0328397
0.0328397
0.0328397
0.0328469
0.0328469
0.0327086
0.0357548
0.0357548
0.0357548
0.0327086
0.0327086
0.0340839
0.0340839
0.0340839
0.0340839
0.0367879
0.0367879
0.0367879
0.0367879
0.0367879
0.0367879
0.0367879
0.036332
0.0368062
0.0368062
0.0368062
0.0322517
0.0322517
0.0322517
0.0322517
0.0277922
0.0277922
0.0277922
0.0292375
0.0322517
0.0322517
0.0322517
0.0327948
0.0328469
0.0328429
0.0328397
0.0328397
0.0328397
0.0328469
0.0328469
0.0327948
0.0357548
0.0357548
0.0357548
0.0327086
0.0327086
0.0340839
0.0340839
0.0340839
0.0367879
0.0367879
0.0367879
0.0367879
0.0367879
0.0367879
0.0367879
0.0367915
0.036332
0.036332
0.0368062
0.0368062
0.0351801
0.0351801
0.0300017
0.0322517
0.0322517
0.0277922
0.0277922
0.0277922
0.0322517
0.0322517
0.0322517
0.0327948
0.0328469
0.0328469
0.0328397
0.0328397
0.0328397
0.0328397
0.0328469
0.0327948
0.0327086
0.0357548
0.0357548
0.0327086
0.0340308
0.0340839
0.0340839
0.0367879
0.0367879
0.0367879
0.0367879
0.0367879
0.0367879
0.0367879
0.0367915
0.0367915
0.0374493
0.036332
0.0367915
0.0367915
0.0351801
0.0351801
0.0351801
0.0351801
0.0351801
0.0300017
0.0319104
0.0319104
0.0319104
0.0322517
0.0322517
0.0327948
0.0322517
0.0328469
0.0319104
0.0322517
0.0328397
0.0328397
0.0327948
0.0327948
0.0327086
0.0357548
0.0357548
0.0327948
0.0340308
0.0340839
0.0353462
0.0367879
0.0367879
0.0367879
0.0367879
0.0367879
0.0367915
0.0367915
0.0374493
0.0374493
0.0374493
0.0372887
0.0367915
0.0367879
0.0351801
0.0351801
0.0351801
0.0351801
0.0351801
0.0351801
0.0351801
0.0351801
0.0319104
0.0322517
0.0322517
0.0327948
0.0327948
0.0328469
0.0322517
0.0319104
0.0322517
0.0322517
0.0327948
0.0327948
0.0327086
0.0327948
0.0327948
0.0327948
0.0340308
0.0353462
0.0353462
0.0353462
0.0367879
0.0367879
0.0367915
0.0374493
0.0374493
0.0374493
0.0374493
0.0374493
0.0374493
0.0367879
0.0367879
0.0367879
0.0351801
0.0351801
0.0351801
0.0351801
0.0351801
0.0351801
0.0351801
0.0351801
0.0351801
0.0339678
0.0339678
0.0322517
0.0327948
0.0328469
0.0327927
0.0327927
0.0327079
0.0327948
0.0327948
0.0327948
0.030613
0.0340308
0.0327948
0.0327948
0.0353462
0.0353462
0.0353462
0.0353462
0.0367879
0.0374493
0.0374493
0.0374493
0.0374493
0.0374493
0.0374493
0.0374095
0.0372611
0.0367879
0.0367879
0.0367879
0.0351801
0.0351801
0.0351801
0.0351801
0.0351801
0.0351801
0.0351801
0.0351801
0.0351801
0.0285572
0.0339678
0.0339678
0.0339678
0.0339678
0.0328469
0.0327927
0.0319104
0.0327948
0.0327948
0.0327948
0.0327948
0.0340308
0.0327948
0.0327948
0.0340308
0.0353462
0.0353462
0.0353462
0.0374493
0.0374493
0.0374493
0.0374493
0.0367385
0.0367385
0.0367385
0.0367385
0.0367879
0.0367879
0.0367879
0.0367879
0.0351099
0.0351099
0.0351801
0.0351801
0.0351801
0.0351801
0.0351801
0.0351801
0.0351801
0.0339678
0.0374106
0.0339678
0.0339678
0.0339678
0.0339678
0.0339678
0.000444363
0.0309894
0.0327948
0.0327948
0.0327948
0.0327086
0.0327086
0.0327086
0.0371373
0.0371373
0.0371192
0.0371373
0.0374493
0.0374493
0.0367385
0.0367385
0.0367385
0.0367385
0.0367385
0.036623
0.0362581
0.0362581
0.0362581
0.0362581
0.0351099
0.0351099
0.0351099
0.0351099
0.0351099
0.0351801
0.0351801
0.0351801
0.0351801
0.0339678
0.0339678
0.0374106
0.0339678
0.0339678
0.0339678
0.0339678
0.0339678
0.000444363
0.0327948
0.0327948
0.0327948
0.0327948
0.0327086
0.0327086
0.0371373
0.0371373
0.0371373
0.0371373
0.0371373
0.0365132
0.0365132
0.0365132
0.0367385
0.0367385
0.0367385
0.0362581
0.0362581
0.0362581
0.0362581
0.0373109
0.0351099
0.0351099
0.0351099
0.0351099
0.0351099
0.0351099
0.0351099
0.0351801
0.0351801
0.0339678
0.0339678
0.0339678
0.0374106
0.0339678
0.0339678
0.0339678
0.0339678
0.0351801
0.0309894
0.0327948
0.0327948
0.0327948
0.0327086
0.0327086
0.0371373
0.0371373
0.0371373
0.0371373
0.0371373
0.0365132
0.0365132
0.0365132
0.036394
0.036394
0.0362581
0.0362581
0.0362581
0.0362581
0.0373109
0.0373109
0.0351099
0.0351099
0.0351099
0.0351099
0.0351099
0.0351099
0.0351099
0.0351099
0.0351099
0.0339678
0.0339678
0.0339678
0.0339678
0.0339678
0.0339678
0.0339678
0.0351801
0.0351801
0.0351801
0.0327948
0.0327086
0.0327086
0.0327086
0.0327086
0.0371373
0.0371192
0.0371192
0.0371192
0.0371192
0.0371192
0.0365132
0.0365132
0.036394
0.0365132
0.0362581
0.0362581
0.0362581
0.0373109
0.0373109
0.0373109
0.0284994
0.0351099
0.0351099
0.0351099
0.0351099
0.0351099
0.0351099
0.0351099
0.0351099
0.0339678
0.0339678
0.0339678
0.0387229
0.0374106
0.0374106
0.0374106
0.030613
0.0270687
0.0270687
0.0270687
0.0270687
0.0270687
0.0340308
0.0340308
0.0340308
0.0369649
0.0371192
0.0357548
0.0369649
0.0369649
0.0340308
0.0339856
0.0365132
0.0365132
0.0367385
0.0373109
0.0373109
0.0373109
0.0373109
0.0373073
0.0284994
0.0284994
0.0284994
0.0284994
0.0284994
0.0351099
0.0351099
0.0351099
0.0339678
0.0339678
0.0339678
0.0339678
0.0387229
0.0387229
0.0374106
0.0374106
0.0270687
0.0270687
0.0270687
0.0355183
0.0270687
0.0270687
0.030613
0.0357548
0.0371192
0.0371192
0.0380282
0.0371192
0.0357548
0.0369649
0.0371192
0.0365132
0.0365132
0.0365132
0.0367385
0.0377549
0.0377549
0.0377549
0.0377549
0.0377549
0.0284994
0.0284994
0.0284994
0.0284994
0.0284994
0.0284994
0.0284994
0.0284994
0.0374106
0.0374023
0.0374023
0.0339678
0.0387229
0.0387229
0.0387229
0.0270687
0.0270687
0.0270687
0.0355183
0.0355183
0.0355183
0.030613
0.030613
0.030613
0.0340308
0.0340308
0.0371373
0.0381429
0.0371373
0.0371373
0.0371373
0.0371373
0.0365132
0.0365132
0.0377549
0.0377549
0.0377549
0.0377549
0.0377549
0.0377549
0.0284994
0.0284994
0.0284994
0.0284994
0.0284994
0.0284994
0.0284994
0.0284994
0.0374106
0.0374106
0.0374106
0.0374106
0.0387229
0.0387229
0.0387229
0.000444363
0.0351801
0.0355183
0.0355183
0.0355183
0.0355183
0.0298575
0.030613
0.030613
0.0371373
0.0270687
0.0270687
0.0382656
0.0382656
0.0371373
0.0371373
0.0371373
0.0393825
0.0370662
0.0370662
0.0370662
0.0373073
0.0373073
0.0373073
0.0373073
0.036435
0.036435
0.036435
0.036435
0.036435
0.0284994
0.0284994
0.0284994
0.0374106
0.0374106
0.0374106
0.0374106
0.0387229
0.0387229
0.0387229
0.0270687
0.0270687
0.0270687
0.0270209
0.0328476
0.0328476
0.0298575
0.0298575
0.0270687
0.0355183
0.0382198
0.0382656
0.0382656
0.0382656
0.0393825
0.0393825
0.0393825
0.0393825
0.0382656
0.0373073
0.0373073
0.0373073
0.0373073
0.0373073
0.0373073
0.036435
0.036435
0.036435
0.036435
0.0374106
0.0374106
0.0374106
0.0374106
0.039036
0.039036
0.039036
0.0374106
0.0387229
0.0318428
0.0343268
0.0270209
0.0270209
0.0351801
0.0306882
0.0306882
0.0308205
0.0262664
0.0270687
0.0381533
0.0381429
0.0382198
0.0382198
0.0382198
0.0382656
0.0382656
0.0393825
0.0393825
0.0382656
0.0382656
0.0382656
0.0373073
0.0373073
0.0373073
0.0382656
0.0382656
0.0367103
0.0367103
0.0377755
0.0389711
0.0374106
0.0374106
0.0374106
0.039036
0.039036
0.0374815
0.0344513
0.0300833
0.0390256
0.0390256
0.0387311
0.0387311
0.0306882
0.0306882
0.0306882
0.0306882
0.0293677
0.0355183
0.0270687
0.0381533
0.0381429
0.0381429
0.0373644
0.0382198
0.0382198
0.0382198
0.0393825
0.0382656
0.0382656
0.0382656
0.0382656
0.0382656
0.0373073
0.0382656
0.0382656
0.040444
0.0344258
0.0344258
0.0344258
0.0344258
0.0374417
0.0344258
0.0374417
0.0374417
0.0374417
0.0343124
0.0300456
0.0300456
0.0300456
0.0386867
0.0318452
0.0318452
0.0318452
0.0318452
0.0318452
0.0387308
0.0387325
0.0351801
0.0373109
0.0373644
0.0382656
0.0393825
0.037617
0.0373644
0.0373644
0.0382198
0.0385362
0.0382656
0.0382656
0.0382656
0.0382656
0.0382656
0.0373109
0.0373109
0.0377549
0.038727
0.0319104
0.0319104
0.0319104
0.0319104
0.0319104
0.0319104
0.0319104
0.0319104
0.0319104
0.0319104
0.0319104
0.0319104
0.0322517
0.0322517
0.0322517
0.0322517
0.0328429
0.0340308
0.0340308
0.0339218
0.0339218
0.0339218
0.0339218
0.0347518
0.0360048
0.0350831
0.0327948
0.0328429
0.0328429
0.0328429
0.0328429
0.0328429
0.0334303
0.0334303
0.0334303
0.0343692
0.036009
0.0363792
0.0363792
0.0368022
0.0322517
0.0319104
0.0319104
0.0319104
0.0319104
0.0319104
0.0319104
0.0319104
0.0319104
0.0319104
0.0319104
0.0319104
0.0319104
0.0322517
0.0322517
0.0322517
0.0327948
0.0340308
0.0340308
0.0339218
0.0339218
0.0339218
0.0339218
0.0347518
0.0360048
0.0350831
0.0327948
0.0328429
0.0328429
0.0328429
0.0328429
0.0328429
0.0334303
0.0334303
0.0334303
0.0334303
0.036009
0.0363792
0.0368022
0.0368022
0.0322517
0.0322517
0.0319104
0.0319104
0.0319104
0.0319104
0.0319104
0.0319104
0.0319104
0.0319104
0.0319104
0.0319104
0.0319104
0.0322517
0.0322517
0.0322517
0.0327948
0.0340308
0.0340308
0.0340308
0.0339218
0.0339218
0.0339218
0.0347518
0.0360048
0.0350831
0.0327948
0.0328429
0.0328429
0.0328429
0.0328429
0.0334303
0.0334303
0.0334303
0.0334303
0.036009
0.036009
0.0363792
0.0368022
0.0368022
0.0322517
0.0322517
0.0322517
0.0319104
0.0319104
0.0319104
0.0319104
0.0319104
0.0319104
0.0319104
0.0319104
0.0319104
0.0319104
0.0322517
0.0322517
0.0322517
0.0327948
0.0340308
0.0340308
0.0340308
0.0339218
0.0339218
0.0339218
0.0347518
0.0360048
0.0327948
0.0327948
0.0328429
0.0328429
0.0328429
0.0328429
0.0334303
0.0334303
0.0334303
0.036009
0.036009
0.036009
0.0363792
0.0368022
0.0368022
0.0322517
0.0322517
0.0322517
0.0319104
0.0319104
0.0319104
0.0319104
0.0319104
0.0319104
0.0319104
0.0319104
0.0319104
0.0319104
0.0319104
0.0322517
0.0322517
0.0322517
0.0340308
0.0340308
0.0340308
0.0339218
0.0339218
0.0339218
0.0340168
0.0349178
0.0327948
0.0327948
0.0328429
0.0328429
0.0328429
0.00124381
0.0334303
0.0334303
0.0334303
0.036009
0.036009
0.0363792
0.0368022
0.0368022
0.0368022
0.000310325
0.000310325
0.000310325
0.0298024
0.0319104
0.0319104
0.0319104
0.0319104
0.0319104
0.0319104
0.0319104
0.0319104
0.0319104
0.0319104
0.0322517
0.0322517
0.0322517
0.0340308
0.0340308
0.0340308
0.0339218
0.0339218
0.0339218
0.0340168
0.0349178
0.0327948
0.0327948
0.0327948
0.0328429
0.00124381
0.00124381
0.00124381
0.0334303
0.036009
0.036009
0.036009
0.0363792
0.0368022
0.0368022
0.0368022
0.0322517
0.0322517
0.000310325
0.0277387
0.032247
0.0319104
0.0319104
0.0319104
0.0319104
0.0319104
0.0319104
0.0319104
0.0319104
0.0319104
0.0319104
0.0322517
0.0322517
0.0327948
0.0340308
0.0340308
0.0339218
0.0339218
0.0339218
0.0340168
0.0327948
0.0327948
0.0327948
0.0327948
0.0328429
0.00124381
0.0334303
0.0334303
0.0334303
0.036009
0.036009
0.036009
0.0368022
0.0368022
0.0368022
0.0368022
0.0321901
0.0322517
0.0131045
0.0233828
0.0299782
0.0322517
0.0319104
0.0319104
0.0319104
0.0319104
0.0319104
0.0319104
0.0319104
0.0319104
0.0319104
0.0322517
0.0322517
0.0322517
0.0340308
0.0340308
0.0339218
0.0339218
0.0340168
0.0340168
0.0327948
0.0327948
0.0327948
0.0327948
0.0328429
0.0328429
0.0334303
0.0334303
0.0363679
0.036009
0.036009
0.036009
0.0368022
0.0368022
0.0368022
0.0368022
0.0321901
0.0321901
0.0155092
0.0254504
0.0292375
0.0299906
0.0299906
0.0319104
0.0319104
0.0319104
0.0319104
0.0319104
0.0319104
0.0319104
0.0319104
0.0319104
0.0322517
0.0322517
0.0340308
0.0340308
0.0339218
0.0339218
0.0340168
0.0340168
0.0327948
0.0327948
0.0327948
0.0327948
0.0328429
0.0328429
0.0334303
0.0334303
0.0363679
0.0363679
0.036009
0.0363792
0.0368022
0.0368022
0.0368022
0.0368022
0.0321901
0.0321901
0.0232711
0.030671
0.0292375
0.0292375
0.0299906
0.0299906
0.0319104
0.0319104
0.0319104
0.0319104
0.0319104
0.0328469
0.0319104
0.0319104
0.0322517
0.0322517
0.0340308
0.0340308
0.0339218
0.0339218
0.0340168
0.0340168
0.0327948
0.0327948
0.0327948
0.0327948
0.0328429
0.0328429
0.0334303
0.0363679
0.0363679
0.0363679